         Total SCF energy =    -75.983831121467

 Vector    2  Occ=2.000000D+00  E=-1.356475D+00  Symmetry=a1

 Vector    3  Occ=2.000000D+00  E=-7.091381D-01  Symmetry=b1

 Vector    4  Occ=2.000000D+00  E=-5.612928D-01  Symmetry=a1

 Vector    5  Occ=2.000000D+00  E=-5.015389D-01  Symmetry=b2

 Vector    6  Occ=0.000000D+00  E= 2.035169D-01  Symmetry=a1

 Vector    7  Occ=0.000000D+00  E= 2.996291D-01  Symmetry=b1

 Vector    8  Occ=0.000000D+00  E= 1.055162D+00  Symmetry=b1

 Vector    9  Occ=0.000000D+00  E= 1.164307D+00  Symmetry=b2

 Vector   10  Occ=0.000000D+00  E= 1.187868D+00  Symmetry=a1

 Vector   11  Occ=0.000000D+00  E= 1.216678D+00  Symmetry=a1

 Vector   12  Occ=0.000000D+00  E= 1.378976D+00  Symmetry=b1

 Vector   13  Occ=0.000000D+00  E= 1.697366D+00  Symmetry=a1

@ Step       Energy      Delta E   Gmax     Grms     Xrms     Xmax   Walltime
@ ---- ---------------- -------- -------- -------- -------- -------- --------
@    0     -75.98383112  0.0D+00  0.01226  0.00769  0.00000  0.00000      0.4
         Total SCF energy =    -75.985339535324

 Vector    2  Occ=2.000000D+00  E=-1.350783D+00  Symmetry=a1

 Vector    3  Occ=2.000000D+00  E=-7.249286D-01  Symmetry=b1

 Vector    4  Occ=2.000000D+00  E=-5.474694D-01  Symmetry=a1

 Vector    5  Occ=2.000000D+00  E=-4.980154D-01  Symmetry=b2

 Vector    6  Occ=0.000000D+00  E= 2.062806D-01  Symmetry=a1

 Vector    7  Occ=0.000000D+00  E= 3.022117D-01  Symmetry=b1

 Vector    8  Occ=0.000000D+00  E= 1.105350D+00  Symmetry=b1

 Vector    9  Occ=0.000000D+00  E= 1.156170D+00  Symmetry=a1

 Vector   10  Occ=0.000000D+00  E= 1.167263D+00  Symmetry=b2

 Vector   11  Occ=0.000000D+00  E= 1.204950D+00  Symmetry=a1

 Vector   12  Occ=0.000000D+00  E= 1.388273D+00  Symmetry=b1

 Vector   13  Occ=0.000000D+00  E= 1.675418D+00  Symmetry=a1

         Total SCF energy =    -75.985339535324
@    1     -75.98533954 -1.5D-03  0.00329  0.00271  0.03968  0.06972      0.6
         Total SCF energy =    -75.985351408389

 Vector    2  Occ=2.000000D+00  E=-1.353552D+00  Symmetry=a1

 Vector    3  Occ=2.000000D+00  E=-7.275628D-01  Symmetry=b1

 Vector    4  Occ=2.000000D+00  E=-5.484894D-01  Symmetry=a1

 Vector    5  Occ=2.000000D+00  E=-4.984197D-01  Symmetry=b2

 Vector    6  Occ=0.000000D+00  E= 2.074699D-01  Symmetry=a1

 Vector    7  Occ=0.000000D+00  E= 3.033845D-01  Symmetry=b1

 Vector    8  Occ=0.000000D+00  E= 1.106471D+00  Symmetry=b1

 Vector    9  Occ=0.000000D+00  E= 1.163706D+00  Symmetry=a1

 Vector   10  Occ=0.000000D+00  E= 1.167154D+00  Symmetry=b2

 Vector   11  Occ=0.000000D+00  E= 1.204386D+00  Symmetry=a1

 Vector   12  Occ=0.000000D+00  E= 1.389562D+00  Symmetry=b1

 Vector   13  Occ=0.000000D+00  E= 1.676220D+00  Symmetry=a1

         Total SCF energy =    -75.985359013302

 Vector    2  Occ=2.000000D+00  E=-1.352485D+00  Symmetry=a1

 Vector    3  Occ=2.000000D+00  E=-7.265495D-01  Symmetry=b1

 Vector    4  Occ=2.000000D+00  E=-5.480985D-01  Symmetry=a1

 Vector    5  Occ=2.000000D+00  E=-4.982641D-01  Symmetry=b2

 Vector    6  Occ=0.000000D+00  E= 2.070155D-01  Symmetry=a1

 Vector    7  Occ=0.000000D+00  E= 3.029361D-01  Symmetry=b1

 Vector    8  Occ=0.000000D+00  E= 1.106048D+00  Symmetry=b1

 Vector    9  Occ=0.000000D+00  E= 1.160803D+00  Symmetry=a1

 Vector   10  Occ=0.000000D+00  E= 1.167196D+00  Symmetry=b2

 Vector   11  Occ=0.000000D+00  E= 1.204595D+00  Symmetry=a1

 Vector   12  Occ=0.000000D+00  E= 1.389049D+00  Symmetry=b1

 Vector   13  Occ=0.000000D+00  E= 1.675916D+00  Symmetry=a1

@    2     -75.98535901 -1.9D-05  0.00012  0.00008  0.00266  0.00554      0.9
         Total SCF energy =    -75.985359175896

 Vector    2  Occ=2.000000D+00  E=-1.352528D+00  Symmetry=a1

 Vector    3  Occ=2.000000D+00  E=-7.263868D-01  Symmetry=b1

 Vector    4  Occ=2.000000D+00  E=-5.482288D-01  Symmetry=a1

 Vector    5  Occ=2.000000D+00  E=-4.982969D-01  Symmetry=b2

 Vector    6  Occ=0.000000D+00  E= 2.069872D-01  Symmetry=a1

 Vector    7  Occ=0.000000D+00  E= 3.029082D-01  Symmetry=b1

 Vector    8  Occ=0.000000D+00  E= 1.105491D+00  Symmetry=b1

 Vector    9  Occ=0.000000D+00  E= 1.161194D+00  Symmetry=a1

 Vector   10  Occ=0.000000D+00  E= 1.167167D+00  Symmetry=b2

 Vector   11  Occ=0.000000D+00  E= 1.204641D+00  Symmetry=a1

 Vector   12  Occ=0.000000D+00  E= 1.388948D+00  Symmetry=b1

 Vector   13  Occ=0.000000D+00  E= 1.676095D+00  Symmetry=a1

       Multipole analysis of the density wrt the origin
       ------------------------------------------------

     L   x y z        total         open         nuclear
     -   - - -        -----         ----         -------
     0   0 0 0     -0.000000      0.000000     10.000000

     1   1 0 0      0.000000      0.000000      0.000000
     1   0 1 0      0.000000      0.000000      0.000000
     1   0 0 1     -0.983769      0.000000     -0.483582

     2   2 0 0     -2.897644      0.000000      4.403210
     2   1 1 0      0.000000      0.000000      0.000000
     2   1 0 1      0.000000      0.000000      0.000000
     2   0 2 0     -5.349053      0.000000      0.000000
     2   0 1 1      0.000000      0.000000      0.000000

         Total SCF energy =    -75.985359175896
@    3     -75.98535918 -1.6D-07  0.00001  0.00000  0.00038  0.00070      1.0
@    3     -75.98535918 -1.6D-07  0.00001  0.00000  0.00038  0.00070      1.0

 Output coordinates in angstroms (scale by  1.889725989 to convert to a.u.)

  No.       Tag          Charge          X              Y              Z
 ---- ---------------- ---------- -------------- -------------- --------------
    1 O                    8.0000     0.00000000     0.00000000     0.08123296
    2 H                    1.0000    -0.78518299     0.00000000    -0.45288218
    3 H                    1.0000     0.78518299     0.00000000    -0.45288218

 Total times  cpu:        0.2s     wall:        1.0s
